# PGM       : FAST
# Author    : Chuntao Chang
# Inf       : SPP
# Time      : 2025-07-15 21:56:05
#             END OF HEADER

    mjd       sod                 X[m]                Y[m]               Z[m]              CLK[ns]      HDOP      VDOP      PDOP      GDOP
  60676      0.00          4097216.063         4429119.790        -2065771.536             2.34462     1.866     0.920     2.081     2.703
  60676     30.00          4097214.433         4429118.357        -2065770.478            -5.04565     0.900     0.445     1.004     1.162
  60676     60.00          4097213.361         4429117.700        -2065769.905            -5.97058     0.900     0.444     1.003     1.161
  60676     90.00          4097215.215         4429118.487        -2065771.269            -1.94274     0.899     0.444     1.003     1.161
  60676    120.00          4097216.462         4429118.522        -2065771.557            -0.71102     0.899     0.444     1.003     1.160
  60676    150.00          4097216.142         4429117.639        -2065770.879            -3.51820     0.898     0.444     1.002     1.159
  60676    180.00          4097216.877         4429119.556        -2065771.661            -1.00941     0.898     0.444     1.002     1.159
  60676    210.00          4097217.244         4429119.329        -2065771.698            -1.24515     0.897     0.444     1.001     1.158
  60676    240.00          4097216.100         4429118.670        -2065771.165            -2.94022     0.897     0.444     1.000     1.157
  60676    270.00          4097214.660         4429116.305        -2065770.138            -8.43203     0.896     0.444     1.000     1.156
  60676    300.00          4097215.688         4429117.491        -2065770.057            -5.23241     0.895     0.443     0.999     1.156
  60676    330.00          4097216.355         4429117.916        -2065770.649            -3.44174     0.895     0.443     0.998     1.155
  60676    360.00          4097217.539         4429118.534        -2065771.345            -2.05411     0.894     0.443     0.998     1.154
  60676    390.00          4097217.789         4429118.977        -2065771.390             0.44436     0.893     0.443     0.997     1.153
  60676    420.00          4097217.205         4429118.402        -2065770.836            -2.42487     0.892     0.443     0.996     1.152
  60676    450.00          4097217.863         4429119.779        -2065771.835             1.17669     0.892     0.442     0.995     1.151
  60676    480.00          4097217.361         4429120.810        -2065771.554             3.03016     0.891     0.442     0.995     1.150
  60676    510.00          4097216.440         4429119.181        -2065770.973             1.85227     0.890     0.442     0.994     1.148
  60676    540.00          4097216.736         4429119.778        -2065771.037             0.95500     0.889     0.442     0.993     1.147
  60676    570.00          4097216.176         4429119.774        -2065770.689             0.11985     0.888     0.441     0.992     1.146
  60676    600.00          4097215.705         4429118.981        -2065770.668            -0.12305     0.977     0.441     1.072     1.234
  60676    630.00          4097217.126         4429118.937        -2065770.804            -1.12092     0.976     0.441     1.071     1.233
  60676    660.00          4097217.617         4429119.512        -2065771.665             1.94320     0.975     0.440     1.070     1.231
  60676    690.00          4097218.215         4429120.096        -2065772.151             4.81563     0.942     0.397     1.022     1.161
  60676    720.00          4097217.965         4429119.797        -2065772.155             4.54249     0.942     0.397     1.022     1.161
  60676    750.00          4097217.743         4429120.644        -2065772.472             3.85722     0.942     0.397     1.022     1.161
  60676    780.00          4097216.709         4429118.447        -2065771.284            -0.34054     0.941     0.397     1.022     1.160
  60676    810.00          4097217.433         4429119.906        -2065771.904             2.61640     0.941     0.397     1.021     1.160
  60676    840.00          4097218.740         4429120.551        -2065772.107             3.80926     0.941     0.397     1.021     1.160
  60676    870.00          4097217.233         4429119.725        -2065772.047             1.20850     0.941     0.397     1.021     1.159
  60676    900.00          4097218.117         4429120.073        -2065772.344             4.15176     0.940     0.397     1.020     1.159
  60676    930.00          4097215.923         4429118.842        -2065771.683            -2.22591     0.940     0.397     1.020     1.158
  60676    960.00          4097217.429         4429119.580        -2065771.974             1.83963     0.939     0.397     1.020     1.158
  60676    990.00          4097217.742         4429119.279        -2065771.881             1.43927     0.939     0.397     1.019     1.157
  60676   1020.00          4097215.675         4429118.320        -2065770.877            -4.07759     0.938     0.397     1.019     1.157
  60676   1050.00          4097216.858         4429118.834        -2065771.258            -0.20751     0.938     0.397     1.018     1.156
  60676   1080.00          4097217.699         4429119.651        -2065771.638             1.48817     0.937     0.396     1.018     1.155
  60676   1110.00          4097215.800         4429119.431        -2065771.403            -0.53833     0.937     0.396     1.017     1.155
  60676   1140.00          4097220.119         4429120.080        -2065772.996             5.06395     0.936     0.396     1.017     1.154
  60676   1170.00          4097223.671         4429121.866        -2065774.728            14.76093     0.935     0.396     1.016     1.153
  60676   1200.00          4097215.756         4429118.287        -2065771.135            -3.18218     1.000     0.425     1.086     1.231
  60676   1230.00          4097215.477         4429118.314        -2065770.652            -2.50790     0.923     0.386     1.000     1.138
  60676   1260.00          4097213.020         4429117.277        -2065768.368            -9.85126     0.922     0.386     0.999     1.137
  60676   1290.00          4097216.428         4429119.355        -2065771.445            -1.21935     0.921     0.386     0.999     1.136
  60676   1320.00          4097215.128         4429118.648        -2065771.244            -2.46802     0.921     0.385     0.998     1.136
  60676   1350.00          4097215.230         4429118.605        -2065770.620            -2.85526     0.920     0.385     0.997     1.135
  60676   1380.00          4097214.496         4429116.832        -2065770.827            -3.69345     0.919     0.385     0.996     1.134
  60676   1410.00          4097213.928         4429117.820        -2065770.568            -4.00095     0.918     0.385     0.996     1.133
  60676   1440.00          4097215.580         4429120.241        -2065771.510             0.68107     0.917     0.384     0.995     1.132
  60676   1470.00          4097216.583         4429118.577        -2065771.430            -1.29034     0.916     0.384     0.994     1.130
  60676   1500.00          4097214.475         4429117.968        -2065770.469            -3.64500     0.916     0.384     0.993     1.129
  60676   1530.00          4097215.765         4429118.013        -2065770.854            -1.97112     0.915     0.384     0.992     1.128
  60676   1560.00          4097213.310         4429117.455        -2065770.509            -6.75003     0.914     0.383     0.991     1.127
  60676   1590.00          4097214.347         4429118.448        -2065770.890            -3.44270     0.913     0.383     0.990     1.126
  60676   1620.00          4097215.047         4429117.608        -2065771.237            -2.21614     0.912     0.383     0.989     1.125
  60676   1650.00          4097213.781         4429116.405        -2065770.518            -5.16365     0.911     0.383     0.988     1.123
  60676   1680.00          4097216.275         4429118.738        -2065771.506             0.12526     0.910     0.382     0.987     1.122
  60676   1710.00          4097215.621         4429118.214        -2065771.060            -1.45846     0.909     0.382     0.986     1.121
  60676   1740.00          4097216.614         4429118.910        -2065771.401             1.54669     0.908     0.382     0.985     1.119
  60676   1770.00          4097218.198         4429120.921        -2065771.958             7.10581     1.037     0.382     1.105     1.281
  60676   1800.00          4097217.030         4429118.613        -2065771.461             1.72605     1.036     0.381     1.104     1.280
  60676   1830.00          4097216.871         4429119.741        -2065771.466             1.07580     1.036     0.381     1.104     1.279
  60676   1860.00          4097219.255         4429119.731        -2065772.109             4.88305     1.035     0.381     1.103     1.278
  60676   1890.00          4097216.601         4429119.358        -2065771.794             0.26888     1.034     0.380     1.102     1.277
  60676   1920.00          4097214.996         4429118.366        -2065770.479            -4.10426     1.033     0.380     1.101     1.276
  60676   1950.00          4097215.959         4429118.459        -2065770.798            -2.89645     1.033     0.380     1.100     1.275
  60676   1980.00          4097216.111         4429119.423        -2065771.836            -0.84539     1.032     0.379     1.099     1.274
  60676   2010.00          4097213.115         4429116.186        -2065770.581            -8.45525     1.031     0.379     1.098     1.273
  60676   2040.00          4097214.421         4429118.178        -2065771.717            -3.44747     1.030     0.378     1.097     1.272
  60676   2070.00          4097215.880         4429117.882        -2065771.323            -2.69049     1.029     0.378     1.096     1.271
  60676   2100.00          4097216.143         4429118.821        -2065770.708            -0.31856     1.028     0.378     1.095     1.269
  60676   2130.00          4097216.894         4429118.911        -2065771.052            -0.50357     1.027     0.377     1.094     1.268
  60676   2160.00          4097218.497         4429120.019        -2065771.228             2.95023     1.026     0.377     1.093     1.267
  60676   2190.00          4097214.606         4429117.024        -2065769.544            -6.77454     1.127     0.408     1.199     1.386
  60676   2220.00          4097214.462         4429116.348        -2065770.087            -5.93627     1.125     0.408     1.197     1.384
  60676   2250.00          4097216.692         4429118.162        -2065770.839            -3.10018     1.123     0.407     1.195     1.382
  60676   2280.00          4097216.468         4429118.826        -2065770.793             0.14287     1.121     0.407     1.193     1.380
  60676   2310.00          4097216.708         4429118.713        -2065770.302             0.20839     1.120     0.406     1.191     1.377
  60676   2340.00          4097217.128         4429119.451        -2065771.261             1.00904     1.118     0.406     1.189     1.375
  60676   2370.00          4097217.152         4429119.791        -2065771.119             2.75157     1.116     0.405     1.187     1.372
  60676   2400.00          4097215.322         4429119.084        -2065770.358            -3.29074     1.205     0.461     1.291     1.486
  60676   2430.00          4097215.078         4429118.232        -2065769.949            -4.00466     1.112     0.404     1.183     1.367
  60676   2460.00          4097214.616         4429117.690        -2065770.125            -5.17377     1.110     0.404     1.181     1.365
  60676   2490.00          4097213.910         4429116.360        -2065769.885            -8.70280     1.107     0.403     1.179     1.362
  60676   2520.00          4097213.063         4429116.093        -2065770.034            -9.26142     1.105     0.403     1.176     1.360
  60676   2550.00          4097215.071         4429118.124        -2065769.699            -4.29201     1.016     0.402     1.093     1.247
  60676   2580.00          4097215.169         4429117.964        -2065770.142            -2.95818     1.088     0.457     1.180     1.340
  60676   2610.00          4097215.863         4429119.187        -2065770.778            -1.56102     1.086     0.456     1.178     1.339
  60676   2640.00          4097215.183         4429118.165        -2065770.441            -2.70103     1.085     0.456     1.177     1.337
  60676   2670.00          4097214.588         4429117.916        -2065770.488            -2.71844     1.084     0.455     1.176     1.336
  60676   2700.00          4097215.171         4429117.951        -2065770.993            -1.16151     1.072     0.433     1.157     1.315
  60676   2730.00          4097215.343         4429118.553        -2065771.177            -0.43677     1.072     0.433     1.156     1.314
  60676   2760.00          4097216.135         4429119.388        -2065771.262             1.66486     1.071     0.433     1.155     1.313
  60676   2790.00          4097216.426         4429118.851        -2065771.195             3.02521     1.070     0.432     1.154     1.312
  60676   2820.00          4097216.743         4429118.585        -2065771.407             1.95059     1.069     0.432     1.152     1.311
  60676   2850.00          4097215.948         4429118.829        -2065771.131             1.40445     1.067     0.431     1.151     1.309
  60676   2880.00          4097217.947         4429120.859        -2065771.463             6.56358     1.066     0.431     1.150     1.308
  60676   2910.00          4097217.406         4429120.337        -2065771.519             5.62872     1.065     0.430     1.149     1.306
  60676   2940.00          4097217.070         4429118.928        -2065772.076             3.82004     1.064     0.430     1.147     1.304
  60676   2970.00          4097214.756         4429117.029        -2065771.410            -3.76906     1.002     0.427     1.089     1.241
  60676   3000.00          4097218.189         4429118.574        -2065772.134             6.54695     0.916     0.405     1.001     1.127
  60676   3030.00          4097217.705         4429118.447        -2065771.518             5.09021     0.916     0.405     1.001     1.127
  60676   3060.00          4097216.798         4429118.675        -2065771.659             1.86633     0.916     0.404     1.001     1.127
  60676   3090.00          4097215.393         4429117.875        -2065771.769            -1.64843     0.916     0.404     1.001     1.127
  60676   3120.00          4097216.001         4429117.818        -2065771.121            -1.09989     0.916     0.404     1.001     1.127
  60676   3150.00          4097217.299         4429119.054        -2065772.075             3.29927     0.916     0.404     1.001     1.127
  60676   3180.00          4097215.822         4429118.049        -2065771.153            -0.26216     0.916     0.404     1.001     1.127
  60676   3210.00          4097216.509         4429118.455        -2065771.695             1.72326     0.916     0.403     1.001     1.126
  60676   3240.00          4097218.748         4429120.424        -2065772.350             6.37287     0.916     0.403     1.001     1.126
  60676   3270.00          4097217.860         4429119.694        -2065772.271             5.30621     0.916     0.403     1.000     1.126
  60676   3300.00          4097217.497         4429119.396        -2065771.475             2.60864     0.915     0.402     1.000     1.125
  60676   3330.00          4097215.749         4429118.639        -2065770.929            -1.20003     0.915     0.402     1.000     1.125
  60676   3360.00          4097216.075         4429118.520        -2065771.024            -0.33344     0.915     0.402     0.999     1.125
  60676   3390.00          4097216.180         4429118.766        -2065770.783             0.20095     0.915     0.401     0.999     1.124
  60676   3420.00          4097214.754         4429117.731        -2065769.512            -4.65893     0.914     0.401     0.998     1.124
  60676   3450.00          4097214.263         4429117.485        -2065769.646            -5.10603     0.914     0.401     0.998     1.123
  60676   3480.00          4097215.653         4429118.486        -2065769.790            -1.08908     0.913     0.400     0.997     1.122
  60676   3510.00          4097216.240         4429119.042        -2065770.423             0.83669     0.939     0.432     1.033     1.160
  60676   3540.00          4097215.776         4429117.955        -2065769.736             0.72014     0.912     0.399     0.996     1.121
  60676   3570.00          4097214.911         4429117.621        -2065770.134            -2.79402     0.912     0.399     0.995     1.120
  60676   3600.00          4097215.305         4429118.173        -2065769.889            -3.05404     0.911     0.398     0.994     1.119
  60676   3630.00          4097214.743         4429118.212        -2065770.586            -3.42746     0.891     0.369     0.964     1.089
  60676   3660.00          4097216.460         4429118.644        -2065770.868             0.80486     0.910     0.397     0.993     1.118
  60676   3690.00          4097217.904         4429119.472        -2065771.379             4.45239     0.890     0.369     0.964     1.088
  60676   3720.00          4097215.344         4429118.158        -2065770.207            -1.48468     0.912     0.395     0.994     1.120
  60676   3750.00          4097217.767         4429119.981        -2065771.824             4.14361     0.889     0.369     0.963     1.087
  60676   3780.00          4097218.762         4429119.646        -2065772.068             4.81010     0.889     0.368     0.962     1.086
  60676   3810.00          4097218.898         4429118.827        -2065771.783             4.96984     0.889     0.368     0.962     1.086
  60676   3840.00          4097217.585         4429119.318        -2065770.970             4.21501     0.888     0.368     0.961     1.085
  60676   3870.00          4097216.426         4429118.259        -2065771.180             1.93901     0.888     0.368     0.961     1.084
  60676   3900.00          4097215.112         4429117.723        -2065770.049            -3.00834     0.887     0.367     0.960     1.084
  60676   3930.00          4097214.982         4429117.881        -2065769.743            -1.50566     0.886     0.367     0.959     1.083
  60676   3960.00          4097215.876         4429118.433        -2065770.979             0.88929     0.886     0.367     0.959     1.082
  60676   3990.00          4097214.341         4429117.846        -2065770.610            -2.72230     0.885     0.366     0.958     1.081
  60676   4020.00          4097216.199         4429118.802        -2065770.786             2.26958     0.884     0.366     0.957     1.081
  60676   4050.00          4097216.222         4429118.948        -2065770.801             2.43021     0.884     0.366     0.956     1.080
  60676   4080.00          4097216.668         4429118.302        -2065771.217             4.58409     0.883     0.366     0.955     1.079
  60676   4110.00          4097214.919         4429117.999        -2065770.415            -1.75330     0.919     0.398     1.001     1.141
  60676   4140.00          4097215.234         4429118.070        -2065771.648             0.21168     0.918     0.398     1.001     1.141
  60676   4170.00          4097215.037         4429117.565        -2065771.205            -1.04154     0.918     0.397     1.000     1.140
  60676   4200.00          4097215.751         4429118.703        -2065771.648             1.17401     0.917     0.397     0.999     1.139
  60676   4230.00          4097217.131         4429118.745        -2065771.771             2.68721     0.916     0.397     0.999     1.138
  60676   4260.00          4097215.436         4429119.044        -2065771.612             0.76152     0.916     0.396     0.998     1.138
  60676   4290.00          4097215.543         4429118.781        -2065771.563             1.13217     0.915     0.396     0.997     1.137
  60676   4320.00          4097218.049         4429120.225        -2065772.761             6.77819     0.914     0.396     0.996     1.136
  60676   4350.00          4097216.292         4429118.213        -2065771.319             3.90600     0.913     0.396     0.995     1.135
  60676   4380.00          4097215.703         4429117.538        -2065770.819            -0.74690     0.994     0.417     1.078     1.248
  60676   4410.00          4097215.308         4429117.268        -2065770.722            -2.03864     0.911     0.395     0.993     1.133
  60676   4440.00          4097215.485         4429116.853        -2065770.705             0.56583     0.911     0.395     0.992     1.132
  60676   4470.00          4097215.927         4429118.515        -2065771.120             2.27962     0.987     0.415     1.071     1.240
  60676   4500.00          4097215.370         4429117.575        -2065770.315            -1.46841     0.985     0.414     1.069     1.237
  60676   4530.00          4097216.144         4429117.986        -2065770.440            -1.52726     0.983     0.413     1.066     1.234
  60676   4560.00          4097217.161         4429119.359        -2065772.013             6.06654     0.981     0.412     1.064     1.232
  60676   4590.00          4097215.493         4429118.773        -2065771.479             1.09017     0.979     0.412     1.062     1.229
  60676   4620.00          4097216.083         4429118.197        -2065770.470            -0.91012     0.976     0.411     1.059     1.226
  60676   4650.00          4097215.500         4429117.724        -2065770.390            -2.11693     0.974     0.410     1.057     1.223
  60676   4680.00          4097215.744         4429119.178        -2065771.385             2.30341     0.972     0.409     1.054     1.220
  60676   4710.00          4097214.710         4429117.488        -2065770.930            -1.63858     0.970     0.408     1.052     1.217
  60676   4740.00          4097213.465         4429117.164        -2065770.587            -1.96548     0.967     0.407     1.050     1.214
  60676   4770.00          4097215.447         4429118.302        -2065771.378             0.47859     0.965     0.406     1.047     1.211
  60676   4800.00          4097216.608         4429118.797        -2065771.600             3.62618     0.963     0.405     1.045     1.208
  60676   4830.00          4097216.603         4429119.108        -2065771.539             3.51365     0.961     0.404     1.042     1.206
  60676   4860.00          4097214.239         4429117.470        -2065770.347            -2.91648     0.958     0.403     1.040     1.203
  60676   4890.00          4097216.823         4429119.074        -2065770.841             5.13136     0.956     0.403     1.037     1.200
  60676   4920.00          4097213.590         4429117.258        -2065769.920            -2.10579     0.954     0.402     1.035     1.197
  60676   4950.00          4097213.602         4429117.274        -2065769.566            -3.32854     0.951     0.401     1.032     1.194
  60676   4980.00          4097212.458         4429116.196        -2065769.389            -8.38835     0.949     0.400     1.030     1.191
  60676   5010.00          4097213.568         4429117.265        -2065769.756            -4.77373     0.946     0.399     1.027     1.188
  60676   5040.00          4097215.028         4429117.712        -2065769.765            -1.39796     0.944     0.398     1.025     1.185
  60676   5070.00          4097214.420         4429117.389        -2065770.214            -1.05558     0.942     0.397     1.022     1.182
  60676   5100.00          4097215.867         4429118.832        -2065771.453             2.75748     0.939     0.396     1.020     1.179
  60676   5130.00          4097215.519         4429117.497        -2065771.075            -0.14799     0.964     0.397     1.043     1.216
  60676   5160.00          4097216.549         4429118.982        -2065771.783             3.84999     0.962     0.396     1.040     1.214
  60676   5190.00          4097216.588         4429117.943        -2065770.739             2.48472     0.960     0.395     1.038     1.211
  60676   5220.00          4097217.303         4429118.911        -2065771.281             5.17387     0.930     0.392     1.010     1.167
  60676   5250.00          4097214.030         4429117.745        -2065770.247             0.46324     0.979     0.437     1.072     1.237
  60676   5280.00          4097215.236         4429118.983        -2065770.319             1.87571     0.976     0.436     1.069     1.233
  60676   5310.00          4097216.844         4429118.738        -2065770.762             2.55301     0.974     0.435     1.066     1.229
  60676   5340.00          4097215.615         4429117.759        -2065770.248             1.00799     0.971     0.434     1.063     1.225
  60676   5370.00          4097214.270         4429116.948        -2065770.702            -1.33584     0.968     0.432     1.060     1.222
  60676   5400.00          4097217.735         4429120.870        -2065770.919             8.94368     0.965     0.431     1.057     1.218
  60676   5430.00          4097214.709         4429117.294        -2065770.156            -4.29716     0.962     0.430     1.054     1.214
  60676   5460.00          4097212.951         4429117.135        -2065770.035            -4.69043     0.959     0.429     1.051     1.211
  60676   5490.00          4097215.282         4429118.044        -2065770.692             0.87605     1.127     0.437     1.209     1.392
  60676   5520.00          4097215.313         4429118.564        -2065771.054             1.86672     1.124     0.436     1.205     1.387
  60676   5550.00          4097215.851         4429117.324        -2065771.210            -0.07943     1.120     0.435     1.201     1.382
  60676   5580.00          4097213.902         4429116.763        -2065770.586            -5.00890     1.116     0.433     1.198     1.378
  60676   5610.00          4097213.699         4429116.652        -2065770.240            -6.25685     1.113     0.432     1.194     1.373
  60676   5640.00          4097215.191         4429117.231        -2065771.131            -1.78815     1.109     0.430     1.190     1.369
  60676   5670.00          4097214.176         4429116.713        -2065770.276            -3.84519     1.106     0.429     1.186     1.364
  60676   5700.00          4097215.647         4429117.902        -2065770.847             2.04717     1.102     0.428     1.182     1.360
  60676   5730.00          4097214.994         4429117.429        -2065770.758             0.09541     1.099     0.426     1.179     1.355
  60676   5760.00          4097215.319         4429117.813        -2065770.797             0.63022     1.095     0.425     1.175     1.351
  60676   5790.00          4097216.003         4429118.799        -2065770.748             2.33520     1.092     0.423     1.171     1.346
  60676   5820.00          4097216.099         4429116.806        -2065770.553             0.25095     1.088     0.422     1.167     1.342
  60676   5850.00          4097215.135         4429117.313        -2065770.427            -1.18119     1.085     0.421     1.163     1.337
  60676   5880.00          4097215.087         4429118.399        -2065770.697             0.33897     1.081     0.419     1.160     1.333
  60676   5910.00          4097216.531         4429118.841        -2065771.505             3.18446     1.078     0.418     1.156     1.329
  60676   5940.00          4097216.785         4429118.302        -2065770.934             4.32028     0.992     0.406     1.071     1.215
  60676   5970.00          4097218.442         4429118.341        -2065771.504             7.23757     0.990     0.405     1.069     1.212
  60676   6000.00          4097215.265         4429117.660        -2065770.786            -0.04775     0.988     0.404     1.067     1.210
  60676   6030.00          4097216.536         4429118.087        -2065770.536             2.96360     0.986     0.403     1.065     1.207
  60676   6060.00          4097212.607         4429115.528        -2065769.975            -8.80512     0.984     0.402     1.063     1.205
  60676   6090.00          4097215.739         4429117.024        -2065770.565             0.61692     0.982     0.402     1.061     1.202
  60676   6120.00          4097215.025         4429117.312        -2065770.211            -1.16266     0.980     0.401     1.058     1.200
  60676   6150.00          4097216.221         4429117.779        -2065771.362             2.91002     1.011     0.403     1.088     1.246
  60676   6180.00          4097215.401         4429118.142        -2065771.155             3.16535     1.009     0.402     1.086     1.244
  60676   6210.00          4097216.423         4429118.060        -2065771.202             2.02379     1.007     0.401     1.084     1.242
  60676   6240.00          4097216.521         4429118.699        -2065771.675             1.87791     0.972     0.397     1.050     1.190
  60676   6270.00          4097215.613         4429118.274        -2065771.077             2.31643     0.970     0.396     1.048     1.187
  60676   6300.00          4097214.592         4429117.840        -2065771.156            -3.96537     0.968     0.396     1.045     1.185
  60676   6330.00          4097215.588         4429118.585        -2065770.962            -0.67201     0.984     0.429     1.073     1.214
  60676   6360.00          4097215.388         4429118.130        -2065770.492            -1.22903     0.964     0.394     1.041     1.180