# PGM       : FAST
# Author    : Chuntao Chang
# Inf       : SPP
# Time      : 2026-03-18 23:40:20
#             END OF HEADER

    mjd       sod                 X[m]                Y[m]               Z[m]              CLK[ns]      HDOP      VDOP      PDOP      GDOP
  60676      0.00          4097216.063         4429119.790        -2065771.536             2.34462     1.866     0.920     2.081     2.703
  60676     30.00          4097214.213         4429118.202        -2065770.475            -5.51249     0.985     0.445     1.081     1.247
  60676     60.00          4097213.940         4429118.110        -2065769.912            -4.74269     0.985     0.445     1.081     1.246
  60676     90.00          4097216.598         4429119.470        -2065771.286             0.99297     0.985     0.444     1.081     1.246
  60676    120.00          4097217.500         4429119.263        -2065771.570             1.49521     0.985     0.444     1.080     1.246
  60676    150.00          4097216.425         4429117.842        -2065770.882            -2.91713     0.985     0.444     1.080     1.245
  60676    180.00          4097216.928         4429119.593        -2065771.662            -0.90021     0.984     0.444     1.080     1.245
  60676    210.00          4097218.229         4429120.040        -2065771.710             0.85634     0.984     0.444     1.080     1.244
  60676    240.00          4097216.474         4429118.941        -2065771.170            -2.14129     0.984     0.444     1.079     1.244
  60676    270.00          4097214.193         4429115.966        -2065770.132            -9.42861     0.983     0.444     1.079     1.243
  60676    300.00          4097215.707         4429117.505        -2065770.057            -5.19173     0.983     0.443     1.078     1.242
  60676    330.00          4097215.969         4429117.634        -2065770.645            -4.26882     0.982     0.443     1.078     1.242
  60676    360.00          4097217.627         4429118.599        -2065771.346            -1.86470     0.982     0.443     1.077     1.241
  60676    390.00          4097217.657         4429118.880        -2065771.389             0.16049     0.981     0.443     1.077     1.240
  60676    420.00          4097216.939         4429118.205        -2065770.833            -2.99664     0.981     0.443     1.076     1.239
  60676    450.00          4097217.777         4429119.716        -2065771.834             0.99219     0.980     0.442     1.075     1.239
  60676    480.00          4097217.313         4429120.775        -2065771.554             2.92813     0.980     0.442     1.075     1.238
  60676    510.00          4097216.247         4429119.037        -2065770.971             1.43683     0.979     0.442     1.074     1.237
  60676    540.00          4097216.431         4429119.550        -2065771.034             0.29853     0.978     0.442     1.073     1.236
  60676    570.00          4097215.708         4429119.423        -2065770.684            -0.88853     0.978     0.441     1.073     1.235
  60676    600.00          4097215.705         4429118.981        -2065770.668            -0.12305     0.977     0.441     1.072     1.234
  60676    630.00          4097217.126         4429118.937        -2065770.804            -1.12092     0.976     0.441     1.071     1.233
  60676    660.00          4097217.617         4429119.512        -2065771.665             1.94320     0.975     0.440     1.070     1.231
  60676    690.00          4097217.698         4429119.477        -2065771.536             2.01573     0.974     0.440     1.069     1.230
  60676    720.00          4097217.291         4429118.987        -2065771.346             0.86913     0.974     0.440     1.068     1.229
  60676    750.00          4097216.811         4429119.522        -2065771.344            -1.25077     0.973     0.439     1.067     1.228
  60676    780.00          4097216.047         4429117.649        -2065770.477            -3.98923     0.972     0.439     1.066     1.226
  60676    810.00          4097216.988         4429119.367        -2065771.356             0.14443     0.971     0.438     1.065     1.225
  60676    840.00          4097218.421         4429120.164        -2065771.711             2.02708     0.970     0.438     1.064     1.224
  60676    870.00          4097216.963         4429119.395        -2065771.709            -0.31137     0.969     0.438     1.063     1.222
  60676    900.00          4097217.448         4429119.255        -2065771.499             0.35922     0.968     0.437     1.062     1.221
  60676    930.00          4097215.356         4429118.145        -2065770.958            -5.46768     0.967     0.437     1.061     1.219
  60676    960.00          4097216.976         4429119.022        -2065771.389            -0.77048     0.965     0.436     1.059     1.218
  60676    990.00          4097217.391         4429118.845        -2065771.424            -0.59562     0.964     0.436     1.058     1.216
  60676   1020.00          4097215.675         4429118.320        -2065770.877            -4.07759     0.938     0.397     1.019     1.157
  60676   1050.00          4097216.858         4429118.834        -2065771.258            -0.20751     0.938     0.397     1.018     1.156
  60676   1080.00          4097217.699         4429119.651        -2065771.638             1.48817     0.937     0.396     1.018     1.155
  60676   1110.00          4097215.800         4429119.431        -2065771.403            -0.53833     0.937     0.396     1.017     1.155
  60676   1140.00          4097220.119         4429120.080        -2065772.996             5.06395     0.936     0.396     1.017     1.154
  60676   1170.00          4097223.671         4429121.866        -2065774.728            14.76093     0.935     0.396     1.016     1.153
  60676   1200.00          4097215.756         4429118.287        -2065771.135            -3.18218     1.000     0.425     1.086     1.231
  60676   1230.00          4097215.477         4429118.314        -2065770.652            -2.50790     0.923     0.386     1.000     1.138
  60676   1260.00          4097213.020         4429117.277        -2065768.368            -9.85126     0.922     0.386     0.999     1.137
  60676   1290.00          4097216.428         4429119.355        -2065771.445            -1.21935     0.921     0.386     0.999     1.136
  60676   1320.00          4097215.128         4429118.648        -2065771.244            -2.46802     0.921     0.385     0.998     1.136
  60676   1350.00          4097215.230         4429118.605        -2065770.620            -2.85526     0.920     0.385     0.997     1.135
  60676   1380.00          4097213.962         4429116.475        -2065770.809            -5.28543     1.042     0.385     1.111     1.289
  60676   1410.00          4097212.874         4429117.111        -2065770.532            -7.14366     1.042     0.385     1.111     1.288
  60676   1440.00          4097215.632         4429120.276        -2065771.511             0.83486     1.042     0.385     1.111     1.288
  60676   1470.00          4097216.079         4429118.235        -2065771.413            -2.79755     1.042     0.385     1.110     1.288
  60676   1500.00          4097214.512         4429117.993        -2065770.470            -3.53233     1.041     0.384     1.110     1.287
  60676   1530.00          4097215.895         4429118.102        -2065770.858            -1.58222     1.041     0.384     1.110     1.287
  60676   1560.00          4097212.234         4429116.716        -2065770.472            -9.96987     1.041     0.384     1.109     1.286
  60676   1590.00          4097214.368         4429118.462        -2065770.891            -3.38231     1.040     0.383     1.109     1.286
  60676   1620.00          4097214.687         4429117.360        -2065771.225            -3.29449     1.040     0.383     1.108     1.285
  60676   1650.00          4097212.871         4429115.773        -2065770.487            -7.89427     1.039     0.383     1.108     1.284
  60676   1680.00          4097216.522         4429118.910        -2065771.515             0.86506     1.039     0.383     1.107     1.284
  60676   1710.00          4097215.833         4429118.254        -2065771.282            -1.30756     1.150     0.414     1.222     1.415
  60676   1740.00          4097216.413         4429119.578        -2065771.787             1.95513     1.244     0.469     1.329     1.533
  60676   1770.00          4097216.407         4429120.277        -2065771.454             3.45721     1.243     0.469     1.328     1.532
  60676   1800.00          4097215.610         4429118.957        -2065771.488            -0.10761     1.242     0.469     1.328     1.531
  60676   1830.00          4097215.530         4429119.537        -2065771.226            -1.30720     1.241     0.469     1.326     1.530
  60676   1860.00          4097216.734         4429119.124        -2065771.544             0.12988     1.240     0.469     1.325     1.528
  60676   1890.00          4097215.996         4429119.272        -2065771.688            -0.79708     1.238     0.468     1.324     1.527
  60676   1920.00          4097216.318         4429118.827        -2065770.848            -1.43981     1.237     0.468     1.323     1.525
  60676   1950.00          4097216.624         4429118.974        -2065771.126            -1.20610     1.236     0.468     1.321     1.523
  60676   1980.00          4097215.556         4429117.996        -2065771.062            -3.49288     1.234     0.468     1.320     1.522
  60676   2010.00          4097214.925         4429117.344        -2065771.355            -4.16096     1.233     0.467     1.318     1.520
  60676   2040.00          4097214.883         4429118.117        -2065771.736            -2.79558     1.231     0.467     1.317     1.518
  60676   2070.00          4097216.421         4429118.251        -2065771.567            -1.37973     1.229     0.467     1.315     1.515
  60676   2100.00          4097217.968         4429120.017        -2065771.507             4.03862     1.227     0.466     1.313     1.513
  60676   2130.00          4097216.627         4429119.486        -2065771.312            -0.20647     1.226     0.466     1.311     1.511
  60676   2160.00          4097216.621         4429119.755        -2065770.889            -0.31964     1.224     0.465     1.309     1.509
  60676   2190.00          4097215.433         4429118.153        -2065770.204            -4.07203     1.222     0.465     1.307     1.506
  60676   2220.00          4097215.548         4429117.831        -2065770.956            -2.38807     1.219     0.465     1.305     1.503
  60676   2250.00          4097217.242         4429118.914        -2065771.280            -1.30384     1.217     0.464     1.303     1.501
  60676   2280.00          4097216.737         4429119.194        -2065771.009             1.02149     1.215     0.464     1.300     1.498
  60676   2310.00          4097216.883         4429118.952        -2065770.443             0.78002     1.213     0.463     1.298     1.495
  60676   2340.00          4097216.461         4429118.537        -2065770.721            -1.17021     1.210     0.462     1.296     1.492
  60676   2370.00          4097216.520         4429118.923        -2065770.606             0.68368     1.208     0.462     1.293     1.489
  60676   2400.00          4097215.322         4429119.084        -2065770.358            -3.29074     1.205     0.461     1.291     1.486
  60676   2430.00          4097215.133         4429118.306        -2065769.994            -3.82643     1.203     0.461     1.288     1.483
  60676   2460.00          4097214.986         4429118.199        -2065770.427            -3.96429     1.200     0.460     1.285     1.480
  60676   2490.00          4097214.920         4429117.752        -2065770.714            -5.39928     1.197     0.459     1.283     1.477
  60676   2520.00          4097213.788         4429117.094        -2065770.631            -6.89004     1.195     0.459     1.280     1.473
  60676   2550.00          4097215.428         4429118.619        -2065770.042            -3.17386     1.089     0.458     1.181     1.342
  60676   2580.00          4097215.169         4429117.964        -2065770.142            -2.95818     1.088     0.457     1.180     1.340
  60676   2610.00          4097215.863         4429119.187        -2065770.778            -1.56102     1.086     0.456     1.178     1.339
  60676   2640.00          4097215.183         4429118.165        -2065770.441            -2.70103     1.085     0.456     1.177     1.337
  60676   2670.00          4097214.588         4429117.916        -2065770.488            -2.71844     1.084     0.455     1.176     1.336
  60676   2700.00          4097215.171         4429117.951        -2065770.993            -1.16151     1.072     0.433     1.157     1.315
  60676   2730.00          4097215.343         4429118.553        -2065771.177            -0.43677     1.072     0.433     1.156     1.314
  60676   2760.00          4097216.135         4429119.388        -2065771.262             1.66486     1.071     0.433     1.155     1.313
  60676   2790.00          4097216.426         4429118.851        -2065771.195             3.02521     1.070     0.432     1.154     1.312
  60676   2820.00          4097216.743         4429118.585        -2065771.407             1.95059     1.069     0.432     1.152     1.311
  60676   2850.00          4097215.948         4429118.829        -2065771.131             1.40445     1.067     0.431     1.151     1.309
  60676   2880.00          4097217.947         4429120.859        -2065771.463             6.56358     1.066     0.431     1.150     1.308
  60676   2910.00          4097217.406         4429120.337        -2065771.519             5.62872     1.065     0.430     1.149     1.306
  60676   2940.00          4097217.070         4429118.928        -2065772.076             3.82004     1.064     0.430     1.147     1.304
  60676   2970.00          4097214.756         4429117.029        -2065771.410            -3.76906     1.002     0.427     1.089     1.241
  60676   3000.00          4097215.120         4429117.315        -2065771.028            -1.57995     1.001     0.427     1.088     1.241
  60676   3030.00          4097216.599         4429117.993        -2065771.121             2.16010     1.000     0.426     1.087     1.240
  60676   3060.00          4097217.239         4429118.855        -2065771.817             3.03615     1.000     0.426     1.086     1.238
  60676   3090.00          4097215.133         4429117.769        -2065771.676            -2.33660     0.999     0.425     1.085     1.237
  60676   3120.00          4097215.841         4429117.753        -2065771.064            -1.52462     0.998     0.424     1.084     1.236
  60676   3150.00          4097216.922         4429118.901        -2065771.941             2.29788     0.997     0.424     1.083     1.235
  60676   3180.00          4097214.922         4429117.684        -2065770.836            -2.65228     0.996     0.423     1.082     1.234
  60676   3210.00          4097214.403         4429117.604        -2065770.958            -3.87409     0.995     0.423     1.081     1.232
  60676   3240.00          4097218.748         4429120.424        -2065772.350             6.37287     0.916     0.403     1.001     1.126
  60676   3270.00          4097217.860         4429119.694        -2065772.271             5.30621     0.916     0.403     1.000     1.126
  60676   3300.00          4097217.497         4429119.396        -2065771.475             2.60864     0.915     0.402     1.000     1.125
  60676   3330.00          4097215.749         4429118.639        -2065770.929            -1.20003     0.915     0.402     1.000     1.125
  60676   3360.00          4097216.075         4429118.520        -2065771.024            -0.33344     0.915     0.402     0.999     1.125
  60676   3390.00          4097216.180         4429118.766        -2065770.783             0.20095     0.915     0.401     0.999     1.124
  60676   3420.00          4097214.754         4429117.731        -2065769.512            -4.65893     0.914     0.401     0.998     1.124
  60676   3450.00          4097214.263         4429117.485        -2065769.646            -5.10603     0.914     0.401     0.998     1.123
  60676   3480.00          4097215.653         4429118.486        -2065769.790            -1.08908     0.913     0.400     0.997     1.122
  60676   3510.00          4097216.240         4429119.042        -2065770.423             0.83669     0.939     0.432     1.033     1.160
  60676   3540.00          4097215.776         4429117.955        -2065769.736             0.72014     0.912     0.399     0.996     1.121
  60676   3570.00          4097214.911         4429117.621        -2065770.134            -2.79402     0.912     0.399     0.995     1.120
  60676   3600.00          4097215.305         4429118.173        -2065769.889            -3.05404     0.911     0.398     0.994     1.119
  60676   3630.00          4097214.743         4429118.212        -2065770.586            -3.42746     0.891     0.369     0.964     1.089
  60676   3660.00          4097216.460         4429118.644        -2065770.868             0.80486     0.910     0.397     0.993     1.118
  60676   3690.00          4097217.904         4429119.472        -2065771.379             4.45239     0.890     0.369     0.964     1.088
  60676   3720.00          4097215.344         4429118.158        -2065770.207            -1.48468     0.912     0.395     0.994     1.120
  60676   3750.00          4097217.767         4429119.981        -2065771.824             4.14361     0.889     0.369     0.963     1.087
  60676   3780.00          4097220.149         4429120.284        -2065773.018             9.31917     0.923     0.399     1.005     1.146
  60676   3810.00          4097219.520         4429119.116        -2065772.209             6.99203     0.923     0.399     1.005     1.146
  60676   3840.00          4097217.681         4429119.363        -2065771.036             4.52871     0.922     0.399     1.005     1.145
  60676   3870.00          4097216.577         4429118.330        -2065771.282             2.42779     0.922     0.399     1.005     1.145
  60676   3900.00          4097215.239         4429117.783        -2065770.136            -2.59593     0.922     0.399     1.004     1.145
  60676   3930.00          4097214.521         4429117.661        -2065769.428            -3.00080     0.922     0.399     1.004     1.144
  60676   3960.00          4097215.312         4429118.161        -2065770.593            -0.94039     0.921     0.399     1.004     1.144
  60676   3990.00          4097212.989         4429117.191        -2065769.685            -7.10825     0.921     0.398     1.003     1.144
  60676   4020.00          4097215.196         4429118.313        -2065770.101            -0.98104     0.920     0.398     1.003     1.143
  60676   4050.00          4097215.676         4429118.680        -2065770.429             0.66106     0.920     0.398     1.002     1.143
  60676   4080.00          4097216.074         4429118.009        -2065770.812             2.65980     0.919     0.398     1.002     1.142
  60676   4110.00          4097214.919         4429117.999        -2065770.415            -1.75330     0.919     0.398     1.001     1.141
  60676   4140.00          4097215.234         4429118.070        -2065771.648             0.21168     0.918     0.398     1.001     1.141
  60676   4170.00          4097215.037         4429117.565        -2065771.205            -1.04154     0.918     0.397     1.000     1.140
  60676   4200.00          4097215.751         4429118.703        -2065771.648             1.17401     0.917     0.397     0.999     1.139
  60676   4230.00          4097217.131         4429118.745        -2065771.771             2.68721     0.916     0.397     0.999     1.138
  60676   4260.00          4097215.436         4429119.044        -2065771.612             0.76152     0.916     0.396     0.998     1.138
  60676   4290.00          4097215.543         4429118.781        -2065771.563             1.13217     0.915     0.396     0.997     1.137
  60676   4320.00          4097218.049         4429120.225        -2065772.761             6.77819     0.914     0.396     0.996     1.136
  60676   4350.00          4097216.292         4429118.213        -2065771.319             3.90600     0.913     0.396     0.995     1.135
  60676   4380.00          4097215.703         4429117.538        -2065770.819            -0.74690     0.994     0.417     1.078     1.248
  60676   4410.00          4097215.308         4429117.268        -2065770.722            -2.03864     0.911     0.395     0.993     1.133
  60676   4440.00          4097215.485         4429116.853        -2065770.705             0.56583     0.911     0.395     0.992     1.132
  60676   4470.00          4097215.927         4429118.515        -2065771.120             2.27962     0.987     0.415     1.071     1.240
  60676   4500.00          4097215.370         4429117.575        -2065770.315            -1.46841     0.985     0.414     1.069     1.237
  60676   4530.00          4097216.144         4429117.986        -2065770.440            -1.52726     0.983     0.413     1.066     1.234
  60676   4560.00          4097217.161         4429119.359        -2065772.013             6.06654     0.981     0.412     1.064     1.232
  60676   4590.00          4097215.493         4429118.773        -2065771.479             1.09017     0.979     0.412     1.062     1.229
  60676   4620.00          4097216.083         4429118.197        -2065770.470            -0.91012     0.976     0.411     1.059     1.226
  60676   4650.00          4097214.546         4429117.126        -2065769.713            -4.51451     1.035     0.461     1.133     1.309
  60676   4680.00          4097215.560         4429119.061        -2065771.254             1.83916     1.033     0.460     1.130     1.305
  60676   4710.00          4097214.158         4429117.141        -2065770.537            -3.02476     1.030     0.458     1.127     1.302
  60676   4740.00          4097213.487         4429117.178        -2065770.604            -1.90868     1.027     0.457     1.124     1.298
  60676   4770.00          4097214.380         4429117.630        -2065770.617            -2.19767     1.025     0.456     1.122     1.295
  60676   4800.00          4097214.859         4429117.694        -2065770.350            -0.75822     1.022     0.455     1.119     1.291
  60676   4830.00          4097215.441         4429118.375        -2065770.708             0.60462     1.019     0.454     1.116     1.288
  60676   4860.00          4097214.385         4429117.562        -2065770.451            -2.55243     1.016     0.453     1.113     1.284
  60676   4890.00          4097217.017         4429119.197        -2065770.981             5.61860     1.014     0.452     1.110     1.281
  60676   4920.00          4097213.519         4429117.213        -2065769.869            -2.28412     1.011     0.450     1.107     1.277
  60676   4950.00          4097215.175         4429118.270        -2065770.700             0.60402     1.008     0.449     1.104     1.273
  60676   4980.00          4097214.388         4429117.418        -2065770.782            -3.56511     1.005     0.448     1.100     1.270
  60676   5010.00          4097214.452         4429117.825        -2065770.395            -2.56664     1.002     0.447     1.097     1.266
  60676   5040.00          4097215.561         4429118.049        -2065770.151            -0.06983     0.999     0.446     1.094     1.262
  60676   5070.00          4097214.595         4429117.500        -2065770.341            -0.61929     0.997     0.444     1.091     1.259
  60676   5100.00          4097215.775         4429118.766        -2065771.039             2.37762     1.172     0.456     1.258     1.450
  60676   5130.00          4097215.204         4429117.261        -2065770.427            -1.19847     1.197     0.458     1.282     1.488
  60676   5160.00          4097216.076         4429118.651        -2065771.221             2.50090     1.194     0.456     1.278     1.484
  60676   5190.00          4097214.156         4429116.360        -2065769.946            -3.30545     1.191     0.455     1.275     1.480
  60676   5220.00          4097215.897         4429118.023        -2065770.761             1.89259     1.159     0.450     1.243     1.432
  60676   5250.00          4097215.090         4429118.414        -2065770.454             2.86280     1.155     0.449     1.239     1.428
  60676   5280.00          4097213.556         4429117.920        -2065769.992            -1.92538     1.152     0.447     1.236     1.423
  60676   5310.00          4097215.362         4429117.798        -2065770.476            -0.79798     1.148     0.446     1.232     1.419
  60676   5340.00          4097215.051         4429117.401        -2065770.140            -0.26696     1.145     0.445     1.228     1.414
  60676   5370.00          4097214.677         4429117.207        -2065770.779            -0.41685     1.141     0.443     1.224     1.410
  60676   5400.00          4097214.536         4429118.827        -2065770.315             1.71038     1.138     0.442     1.221     1.405
  60676   5430.00          4097213.603         4429116.586        -2065769.949            -6.79664     1.134     0.440     1.217     1.401
  60676   5460.00          4097214.521         4429118.143        -2065770.327            -1.14171     1.131     0.439     1.213     1.396
  60676   5490.00          4097215.282         4429118.044        -2065770.692             0.87605     1.127     0.437     1.209     1.392
  60676   5520.00          4097215.313         4429118.564        -2065771.054             1.86672     1.124     0.436     1.205     1.387
  60676   5550.00          4097215.851         4429117.324        -2065771.210            -0.07943     1.120     0.435     1.201     1.382
  60676   5580.00          4097213.902         4429116.763        -2065770.586            -5.00890     1.116     0.433     1.198     1.378
  60676   5610.00          4097213.699         4429116.652        -2065770.240            -6.25685     1.113     0.432     1.194     1.373
  60676   5640.00          4097215.191         4429117.231        -2065771.131            -1.78815     1.109     0.430     1.190     1.369
  60676   5670.00          4097214.176         4429116.713        -2065770.276            -3.84519     1.106     0.429     1.186     1.364
  60676   5700.00          4097215.647         4429117.902        -2065770.847             2.04717     1.102     0.428     1.182     1.360
  60676   5730.00          4097214.994         4429117.429        -2065770.758             0.09541     1.099     0.426     1.179     1.355
  60676   5760.00          4097215.319         4429117.813        -2065770.797             0.63022     1.095     0.425     1.175     1.351
  60676   5790.00          4097216.003         4429118.799        -2065770.748             2.33520     1.092     0.423     1.171     1.346
  60676   5820.00          4097216.099         4429116.806        -2065770.553             0.25095     1.088     0.422     1.167     1.342
  60676   5850.00          4097215.135         4429117.313        -2065770.427            -1.18119     1.085     0.421     1.163     1.337
  60676   5880.00          4097215.087         4429118.399        -2065770.697             0.33897     1.081     0.419     1.160     1.333
  60676   5910.00          4097216.531         4429118.841        -2065771.505             3.18446     1.078     0.418     1.156     1.329
  60676   5940.00          4097216.785         4429118.302        -2065770.934             4.32028     0.992     0.406     1.071     1.215
  60676   5970.00          4097218.442         4429118.341        -2065771.504             7.23757     0.990     0.405     1.069     1.212
  60676   6000.00          4097215.265         4429117.660        -2065770.786            -0.04775     0.988     0.404     1.067     1.210
  60676   6030.00          4097216.536         4429118.087        -2065770.536             2.96360     0.986     0.403     1.065     1.207
  60676   6060.00          4097212.607         4429115.528        -2065769.975            -8.80512     0.984     0.402     1.063     1.205
  60676   6090.00          4097215.739         4429117.024        -2065770.565             0.61692     0.982     0.402     1.061     1.202
  60676   6120.00          4097215.025         4429117.312        -2065770.211            -1.16266     0.980     0.401     1.058     1.200
  60676   6150.00          4097216.221         4429117.779        -2065771.362             2.91002     1.011     0.403     1.088     1.246
  60676   6180.00          4097215.401         4429118.142        -2065771.155             3.16535     1.009     0.402     1.086     1.244
  60676   6210.00          4097216.423         4429118.060        -2065771.202             2.02379     1.007     0.401     1.084     1.242
  60676   6240.00          4097216.521         4429118.699        -2065771.675             1.87791     0.972     0.397     1.050     1.190
  60676   6270.00          4097215.613         4429118.274        -2065771.077             2.31643     0.970     0.396     1.048     1.187
  60676   6300.00          4097214.592         4429117.840        -2065771.156            -3.96537     0.968     0.396     1.045     1.185
  60676   6330.00          4097215.588         4429118.585        -2065770.962            -0.67201     0.984     0.429     1.073     1.214
  60676   6360.00          4097215.388         4429118.130        -2065770.492            -1.22903     0.964     0.394     1.041     1.180